 Gaussian 16, Revision A.03,
 Gaussian 16:  ES64L-G16RevA.03 25-Dec-2016

 ----------------------------------------------------------------
 #p hf aug-cc-pvdz output=wfx scf=(conver=6) int=(grid=ultrafine)
 ----------------------------------------------------------------

 -----
 title
 -----
 Symbolic Z-matrix:
 Charge =  0 Multiplicity = 1

                         Standard orientation:
 ---------------------------------------------------------------------
 Center     Atomic      Atomic             Coordinates (Angstroms)
 Number     Number       Type             X           Y           Z
 ---------------------------------------------------------------------
      1          6           0        1.718455    0.254268    0.000000
      2          8           0        1.275006   -0.872925    0.000000
      3          8           0        0.953299    1.347117    0.000000
      4          1           0       -0.000000    1.083741    0.000000
      5          6           0        3.185113    0.588522    0.000000
      6          1           0        3.772021   -0.323212    0.000000
      7          1           0        3.425688    1.188373    0.876745
      8          1           0        3.425688    1.188373   -0.876745
      9          1           0       -3.433588   -1.870078   -0.874205
     10          1           0       -3.433588   -1.870078    0.874205
     11          1           0       -4.099138   -0.459476    0.000000
     12          1           0       -1.103991   -1.311738    0.000000
     13          6           0       -3.327207   -1.223757    0.000000
     14          6           0       -1.961856   -0.621656    0.000000
     15          8           0       -1.758320    0.574538    0.000000
 ---------------------------------------------------------------------

 SCF Done:  E(RHF) =  -380.800690082     A.U. after   11 cycles

 The electronic state is 1-A'.
 Alpha  occ. eigenvalues --  -20.59512 -20.58487 -20.54587 -11.38430 -11.35348
 Alpha  occ. eigenvalues --  -11.25397 -11.24081  -1.45193  -1.41550  -1.34841
 Alpha  occ. eigenvalues --   -1.03298  -1.01528  -0.81747  -0.81013  -0.70274
 Alpha  occ. eigenvalues --   -0.68751  -0.66543  -0.63833  -0.63603  -0.61252
 Alpha  occ. eigenvalues --   -0.57340  -0.56749  -0.55119  -0.54624  -0.51965
 Alpha  occ. eigenvalues --   -0.46643  -0.44519  -0.43805
 Alpha virt. eigenvalues --    0.03317   0.04170   0.05340   0.05424   0.06339
 Alpha virt. eigenvalues --    0.06438   0.06921   0.09133   0.10046   0.10284
 Alpha virt. eigenvalues --    0.12136   0.13408   0.14601   0.14943   0.15167

 Mulliken charges:
               1
     1  C    0.700770
     2  O   -0.734241
     3  O   -0.658792
     4  H    0.296907
     5  C    0.394400
     6  H   -0.033842
     7  H    0.037348
     8  H    0.037348
     9  H    0.051052
    10  H    0.051052
    11  H   -0.089906
    12  H   -0.177457
    13  C    0.178478
    14  C    0.725018
    15  O   -0.778136
 Sum of Mulliken charges =  -0.00000

 Dipole moment (field-independent basis, Debye):
    X=             -1.0741    Y=             -1.4659    Z=              0.0000  Tot=              1.8173
 Quadrupole moment (field-independent basis, Debye-Ang):
   XX=            -29.9416   YY=            -45.4836   ZZ=            -41.2158
   XY=              9.0306   XZ=             -0.0000   YZ=             -0.0000

 Normal termination of Gaussian 16 at Tue Oct 20 02:56:41 2020.
